
                        S T E P       1


                                INCREMENT     1


 displacements (vx,vy,vz) for set LOADED and time  0.1000000E+01

       107  1.624531E-03  8.210377E-04 -2.134933E-02
       108  1.624728E-03  8.222884E-04 -2.213710E-02
       109  1.660734E-03  8.037493E-04 -2.049472E-02
       110  1.629822E-03  8.172197E-04 -2.178083E-02
       111  1.665145E-03  8.066572E-04 -2.085980E-02
       112  1.637175E-03  8.166217E-04 -2.133169E-02
       113  1.818329E-04  7.542637E-04 -2.086833E-02
       114  1.763388E-04  7.735847E-04 -2.133636E-02
       123  1.605830E-03  8.412085E-04 -2.136508E-02
       124  1.598815E-03  8.361916E-04 -2.220329E-02
       125  1.620401E-03  8.331695E-04 -2.054597E-02
       126  1.599864E-03  8.339730E-04 -2.185571E-02
       127  1.622367E-03  8.334810E-04 -2.092001E-02
       128  1.609101E-03  8.363609E-04 -2.137795E-02
       129  1.762648E-04  8.358490E-04 -2.093236E-02
       130  1.603601E-04  8.446955E-04 -2.139096E-02
       131  6.010030E-04  7.705120E-04 -2.031424E-02
       132  5.965722E-04  8.114884E-04 -2.019902E-02
       133  1.844099E-04  7.457273E-04 -2.029329E-02
       134  1.656218E-04  8.120365E-04 -2.050769E-02
       135  2.201780E-04  8.305685E-04 -1.928775E-02
       136  6.321870E-04  8.252324E-04 -1.928286E-02
       137  7.176468E-04  7.865229E-04 -1.837053E-02
       149 -1.722337E-03  7.348034E-04 -1.994913E-02
       150 -1.696034E-03  7.579958E-04 -2.065667E-02
       151 -1.725810E-03  7.211640E-04 -1.915996E-02
       152 -1.691006E-03  7.521492E-04 -2.032722E-02
       153 -1.718795E-03  7.302966E-04 -1.948692E-02
       154 -1.712350E-03  7.395194E-04 -1.992823E-02
       155 -3.836139E-04  7.947794E-04 -1.993228E-02
       156 -3.778854E-04  7.956798E-04 -1.949930E-02
       165 -1.834893E-03  7.201643E-04 -2.004095E-02
       166 -1.802205E-03  7.485482E-04 -2.079159E-02
       167 -1.821442E-03  7.011989E-04 -1.928301E-02
       168 -1.791965E-03  7.397001E-04 -2.047128E-02
       169 -1.813485E-03  7.114766E-04 -1.961926E-02
       170 -1.815525E-03  7.242958E-04 -2.004248E-02
       171 -4.968396E-04  7.386874E-04 -2.005356E-02
       172 -4.956548E-04  7.344692E-04 -1.962825E-02
       173 -3.912683E-04  7.839478E-04 -1.897857E-02
       174 -4.405498E-04  7.472502E-04 -1.921042E-02
       175 -7.878130E-04  7.573978E-04 -1.900190E-02
       176 -8.228292E-04  7.291035E-04 -1.892231E-02
       177 -5.316308E-04  6.860392E-04 -1.812493E-02
       178 -8.866679E-04  6.837376E-04 -1.810957E-02
       179 -9.263901E-04  6.774601E-04 -1.727557E-02
       189 -1.671335E-03  7.197660E-04 -1.778758E-02
       190 -3.295879E-04  8.364750E-04 -2.002285E-02
       191 -3.411764E-04  8.142361E-04 -1.880445E-02
       192 -9.044071E-04  7.813622E-04 -1.877144E-02
       199  2.311758E-04  7.321437E-04 -2.147253E-02
       200  1.734267E-03  7.503334E-04 -1.901464E-02
       205  8.831395E-04  7.296806E-04 -2.009551E-02
       206  2.465084E-04  6.988608E-04 -2.012909E-02
       210 -5.372489E-04  7.421658E-04 -2.033309E-02
       211 -1.885698E-03  6.530380E-04 -1.813523E-02
       220 -1.097598E-03  6.718453E-04 -1.727216E-02
       221 -1.072698E-03  6.799757E-04 -1.810810E-02
       222 -1.017590E-03  7.238304E-04 -1.892003E-02
       223 -9.805232E-04  7.483348E-04 -1.899768E-02
       225 -4.761132E-04  7.624020E-04 -2.046537E-02
       227 -3.748058E-04  8.087226E-04 -2.032892E-02
       229 -5.396961E-03  5.525119E-04 -1.915997E-02
       230 -5.449850E-03  5.846456E-04 -1.994895E-02
       240  1.612950E-03  8.383539E-04 -1.925026E-02
       241  1.548179E-04  8.514912E-04 -2.167311E-02
       251  9.135565E-04  7.887746E-04 -1.836690E-02
       252  8.362741E-04  8.261939E-04 -1.928081E-02
       253  8.093527E-04  8.124291E-04 -2.019691E-02
       254  8.109558E-04  7.786208E-04 -2.031333E-02
       255  8.182351E-04  8.079170E-04 -1.976827E-02
       256  8.519229E-04  8.131371E-04 -1.927208E-02
       257  9.188849E-04  7.874203E-04 -1.876591E-02
       258  1.518943E-04  8.340427E-04 -2.185380E-02
       260  1.818922E-04  7.751951E-04 -2.177983E-02
       262  5.736112E-03  9.187783E-04 -2.134593E-02
       263  5.700215E-03  9.343709E-04 -2.049579E-02
       268  3.708795E-03  8.721156E-04 -1.901451E-02
       269  3.594413E-03  8.197696E-04 -1.925338E-02
       274 -3.466114E-03  5.994194E-04 -1.778683E-02
       533  5.646278E-03  8.493680E-04 -2.055248E-02
       534  5.236453E-03  8.486703E-04 -2.136823E-02
       535  5.657764E-03  8.509100E-04 -2.042190E-02
       536  5.732262E-03  9.193350E-04 -2.201613E-02
       537  5.393904E-03  8.790757E-04 -2.220731E-02
       542  5.694962E-03  9.507994E-04 -1.915521E-02
       543  5.715307E-03  9.668979E-04 -2.028979E-02
       544  5.750480E-03  9.320675E-04 -2.198218E-02
       545  5.638228E-03  8.375054E-04 -1.929206E-02
       547  5.651094E-03  8.475745E-04 -1.928740E-02
       548  5.696208E-03  8.773515E-04 -1.976698E-02
       549  5.579089E-03  8.630155E-04 -1.880006E-02
       550  5.743052E-03  9.361693E-04 -2.214106E-02
       558 -3.687348E-03  6.371507E-04 -1.814047E-02
       566 -5.435778E-03  5.943364E-04 -2.066143E-02
       567 -5.368636E-03  5.279411E-04 -1.896570E-02
       568 -5.445855E-03  5.935342E-04 -2.051844E-02
       569 -5.497457E-03  6.022019E-04 -2.058668E-02
       570 -5.492952E-03  6.109696E-04 -1.916343E-02
       571 -5.250316E-03  6.447876E-04 -2.079433E-02
       572 -5.487587E-03  6.173928E-04 -1.928697E-02
       573 -5.138700E-03  6.489934E-04 -2.004677E-02
       575 -5.482685E-03  5.870579E-04 -1.813903E-02
       576 -5.341437E-03  5.058375E-04 -1.793124E-02
       718  1.636819E-03  8.237568E-04 -2.240959E-02
       719  1.660393E-03  8.120656E-04 -2.175383E-02
       720  1.675741E-03  7.946226E-04 -2.070709E-02
       721  1.677577E-03  7.868835E-04 -2.012895E-02
       722  1.636234E-03  8.208623E-04 -2.193355E-02
       723  1.653255E-03  8.159059E-04 -2.156531E-02
       724  1.673182E-03  8.045044E-04 -2.098373E-02
       725  1.678387E-03  7.992755E-04 -2.066393E-02
       734  1.598537E-03  8.366147E-04 -2.251638E-02
       735  1.607335E-03  8.283083E-04 -2.190010E-02
       736  1.621921E-03  8.201703E-04 -2.086559E-02
       737  1.637049E-03  8.284109E-04 -2.024320E-02
       738  1.597412E-03  8.307763E-04 -2.203439E-02
       739  1.611291E-03  8.309878E-04 -2.169130E-02
       740  1.625279E-03  8.244433E-04 -2.110727E-02
       741  1.638311E-03  8.254095E-04 -2.076062E-02
       742  5.859518E-04  7.921662E-04 -2.054619E-02
       743  4.060273E-04  7.585421E-04 -2.030413E-02
       744  1.657403E-04  7.791134E-04 -2.096370E-02
       756 -1.676340E-03  7.652987E-04 -2.089254E-02
       757 -1.669233E-03  7.570185E-04 -2.029080E-02
       758 -1.685494E-03  7.392741E-04 -1.933997E-02
       759 -1.709847E-03  7.226098E-04 -1.882827E-02
       760 -1.678341E-03  7.533971E-04 -2.046052E-02
       761 -1.678007E-03  7.461533E-04 -2.012390E-02
       762 -1.696628E-03  7.394745E-04 -1.959172E-02
       763 -1.715630E-03  7.293723E-04 -1.930795E-02
       772 -1.770601E-03  7.578437E-04 -2.105467E-02
       773 -1.752357E-03  7.445250E-04 -2.047646E-02
       774 -1.763763E-03  7.188024E-04 -1.953070E-02
       775 -1.804506E-03  6.966087E-04 -1.898705E-02
       776 -1.771722E-03  7.452926E-04 -2.062375E-02
       777 -1.770102E-03  7.339930E-04 -2.029693E-02
       778 -1.785538E-03  7.209244E-04 -1.976657E-02
       779 -1.810051E-03  7.116101E-04 -1.946459E-02
       780 -4.083756E-04  7.796019E-04 -1.960524E-02
       781 -6.028500E-04  7.707478E-04 -1.899054E-02
       782 -7.981871E-04  7.506467E-04 -1.922309E-02
       804 -9.619338E-04  7.799614E-04 -1.891496E-02
       825  9.478726E-04  7.370044E-04 -2.025341E-02
       842 -1.187615E-03  6.958491E-04 -1.924798E-02
       850 -5.515693E-04  6.973537E-04 -1.902265E-02
       851 -6.046998E-04  6.523255E-04 -1.773035E-02
       856 -9.915118E-04  7.429973E-04 -1.921965E-02
       858 -9.434728E-04  7.728899E-04 -1.889107E-02
       859 -3.546263E-04  8.083651E-04 -1.888861E-02
       866 -3.387403E-04  8.467075E-04 -2.137619E-02
       867 -3.615939E-04  8.574848E-04 -2.228202E-02
       868 -4.008288E-04  8.605205E-04 -2.264200E-02
       869 -4.443772E-04  8.435650E-04 -2.241639E-02
       870 -4.942826E-04  8.065296E-04 -2.161864E-02
       871 -4.772178E-04  7.444185E-04 -1.946512E-02
       872 -4.468744E-04  7.711869E-04 -1.977328E-02
       873 -4.458029E-04  7.912761E-04 -2.029803E-02
       874 -4.612123E-04  7.853298E-04 -2.061852E-02
       879 -3.660909E-04  8.061446E-04 -1.931103E-02
       880 -3.533831E-04  8.250620E-04 -1.960427E-02
       881 -3.546264E-04  8.344428E-04 -2.012908E-02
       882 -3.631838E-04  8.270368E-04 -2.045970E-02
       887 -3.581008E-03  6.574818E-04 -1.993178E-02
       888 -3.557877E-03  6.362213E-04 -1.914196E-02
       911  8.522813E-04  8.493053E-04 -2.047372E-02
       912  1.705968E-04  8.512711E-04 -2.023462E-02
       913  2.197028E-04  8.470074E-04 -1.881300E-02
       937  7.950676E-04  7.966985E-04 -2.054488E-02
       939  8.483626E-04  7.446835E-04 -2.021307E-02
       940  9.231719E-04  7.731495E-04 -1.857483E-02
       941  8.928496E-04  7.627878E-04 -1.893019E-02
       942  8.388207E-04  7.580076E-04 -1.956276E-02
       943  8.031565E-04  7.849861E-04 -1.994892E-02
       944  2.050952E-04  7.104296E-04 -2.020995E-02
       947  1.994672E-04  7.764138E-04 -2.295376E-02
       948  1.700833E-04  7.984952E-04 -2.393335E-02
       949  1.549725E-04  8.111035E-04 -2.430267E-02
       950  1.431811E-04  8.213315E-04 -2.401480E-02
       951  1.439946E-04  8.288933E-04 -2.310559E-02
       952  1.754312E-04  8.212308E-04 -2.076846E-02
       953  1.634267E-04  8.029209E-04 -2.111193E-02
       954  1.565141E-04  7.969871E-04 -2.169240E-02
       955  1.537207E-04  8.144032E-04 -2.203306E-02
       960  1.904638E-04  7.319071E-04 -2.066552E-02
       961  1.922268E-04  7.242489E-04 -2.099055E-02
       962  1.921032E-04  7.353454E-04 -2.156642E-02
       963  1.868193E-04  7.582807E-04 -2.192720E-02
       968  3.671449E-03  8.665011E-04 -2.048009E-02
       969  3.672982E-03  8.694478E-04 -2.133494E-02
       982  3.723246E-03  8.932477E-04 -2.097141E-02
       983  3.714504E-03  8.982357E-04 -2.269215E-02
       984  3.699820E-03  9.013649E-04 -2.385821E-02
       985  3.680702E-03  8.966801E-04 -2.429752E-02
       986  3.664315E-03  8.856428E-04 -2.395810E-02
       987  3.646734E-03  8.708087E-04 -2.287001E-02
       988  3.621753E-03  8.462834E-04 -2.119556E-02
      1326  5.520431E-03  8.482251E-04 -2.098417E-02
      1327  3.629324E-03  8.459729E-04 -2.053266E-02
      1328  3.411264E-03  8.483125E-04 -2.135353E-02
      1329  5.670613E-03  8.620494E-04 -2.028910E-02
      1330  5.717908E-03  9.052304E-04 -2.101236E-02
      1331  5.653711E-03  8.495062E-04 -2.048594E-02
      1332  3.488361E-03  8.636345E-04 -2.220121E-02
      1333  5.570027E-03  9.078463E-04 -2.252164E-02
      1334  5.350621E-03  8.637212E-04 -2.179357E-02
      1348  5.701294E-03  9.542470E-04 -2.013811E-02
      1349  5.741388E-03  9.263063E-04 -2.221837E-02
      1361  5.715676E-03  9.074211E-04 -1.994257E-02
      1362  5.686820E-03  9.392792E-04 -1.958017E-02
      1363  5.642267E-03  9.294578E-04 -1.897108E-02
      1364  5.571174E-03  8.851840E-04 -1.860661E-02
      1365  5.748535E-03  9.350445E-04 -2.206371E-02
      1366  3.683357E-03  8.807393E-04 -2.213437E-02
      1367  5.442879E-03  9.652919E-04 -2.194789E-02
      1380  5.108935E-03  9.468436E-04 -1.907512E-02
      1381  5.013504E-03  8.238199E-04 -1.927654E-02
      1435 -3.700483E-03  6.739954E-04 -1.990185E-02
      1436 -3.688549E-03  7.033131E-04 -2.140855E-02
      1437 -3.647519E-03  7.261541E-04 -2.236162E-02
      1438 -3.600714E-03  7.268008E-04 -2.263795E-02
      1439 -3.557955E-03  7.133759E-04 -2.221272E-02
      1440 -3.520768E-03  6.825802E-04 -2.113794E-02
      1441 -3.490327E-03  6.392511E-04 -1.956654E-02
      1447 -3.564339E-03  6.749846E-04 -2.065322E-02
      1448 -5.379649E-03  5.323376E-04 -1.883290E-02
      1449 -5.111802E-03  5.796628E-04 -2.047087E-02
      1450 -5.442098E-03  5.929953E-04 -2.059349E-02
      1451 -5.477523E-03  5.861704E-04 -1.966369E-02
      1452 -5.462902E-03  5.967709E-04 -1.902199E-02
      1453 -5.376719E-03  6.276961E-04 -2.105991E-02
      1454 -3.520742E-03  6.926604E-04 -2.078645E-02
      1455 -3.649423E-03  6.536127E-04 -1.926806E-02
      1456 -5.491820E-03  6.146771E-04 -1.922431E-02
      1457 -5.225946E-03  6.461906E-04 -2.042831E-02
      1458 -3.478877E-03  6.812528E-04 -2.003207E-02
      1459 -5.387993E-03  6.334994E-04 -1.968902E-02
      1470 -4.961926E-03  6.100668E-04 -1.815093E-02
      1471 -4.763693E-03  5.203708E-04 -1.784111E-02
      1472 -5.469023E-03  6.027385E-04 -2.074948E-02
      1507  4.029764E-03  8.390436E-04 -1.927039E-02
      1508  2.452859E-03  8.274236E-04 -1.926242E-02
      1509  3.997745E-03  8.483249E-04 -1.876870E-02
      1510  2.464875E-03  8.185928E-04 -1.875972E-02
      1511  4.057435E-03  8.564104E-04 -1.975354E-02
      1512  2.449908E-03  8.270880E-04 -1.975380E-02
      1640  9.132035E-04  7.883776E-04 -2.110217E-02
      1642  8.926094E-04  8.369048E-04 -2.115390E-02
      1643  4.157623E-04  8.010971E-04 -2.059814E-02
      1647 -1.046737E-03  7.648826E-04 -1.971266E-02
      1649 -1.155304E-03  7.278647E-04 -1.983636E-02
      1650 -6.524607E-04  7.500870E-04 -1.928100E-02
      1651 -6.641738E-04  7.634429E-04 -1.929305E-02
      1699 -1.076078E-03  6.694122E-04 -1.834217E-02
      1701 -1.046268E-03  7.068614E-04 -1.762116E-02
      1702 -1.007452E-03  7.342535E-04 -1.800031E-02
      1703 -1.047151E-03  7.048898E-04 -1.808914E-02
      1704 -1.011497E-03  7.253682E-04 -1.847492E-02
      1705 -9.603187E-04  7.573299E-04 -1.786563E-02
      1720 -3.856699E-04  8.075695E-04 -2.050817E-02
      1721 -3.718537E-04  8.239955E-04 -2.092786E-02
      1723 -4.463596E-04  7.989206E-04 -2.085392E-02
      1724 -4.280664E-04  7.981670E-04 -2.053164E-02
      1729 -5.207712E-04  7.188246E-04 -1.936976E-02
      1731 -3.478344E-04  8.305195E-04 -1.989026E-02
      1733 -4.226441E-04  8.221573E-04 -2.139031E-02
      1734 -3.899539E-04  8.296275E-04 -2.138074E-02
      1735 -4.675693E-04  7.868259E-04 -2.095630E-02
      1736 -4.957785E-04  7.593724E-04 -2.058651E-02
      1737 -4.049270E-04  8.034165E-04 -2.051574E-02
      1738 -4.258926E-04  7.805591E-04 -1.992113E-02
      1739 -3.558098E-04  8.368608E-04 -2.115788E-02
      1740 -5.072738E-04  7.189028E-04 -1.905560E-02
      1742 -5.565886E-04  6.903097E-04 -1.848510E-02
      1743 -5.829047E-04  6.600886E-04 -1.757339E-02
      1744 -3.483679E-04  8.371203E-04 -2.062697E-02
      1747 -5.196171E-04  7.302959E-04 -1.990466E-02
      1748 -3.947269E-04  7.959248E-04 -2.013995E-02
      1752 -4.502800E-04  8.128308E-04 -2.151342E-02
      1756 -3.487451E-04  8.207547E-04 -1.933788E-02
      1757 -3.421467E-04  8.260438E-04 -1.951388E-02
      1760 -1.145714E-03  7.397146E-04 -2.025839E-02
      1761 -1.297848E-03  7.315388E-04 -1.956612E-02
      1762 -1.299195E-03  7.599082E-04 -2.049965E-02
      1763 -9.352432E-04  7.620860E-04 -2.003019E-02
      1764 -9.855166E-04  7.649067E-04 -2.061577E-02
      1765 -1.010634E-03  7.275617E-04 -1.947155E-02
      1766 -1.404818E-03  7.465656E-04 -2.003076E-02
      1767 -8.412736E-04  7.445307E-04 -1.957269E-02
      1768 -8.306102E-04  7.759863E-04 -2.049678E-02
      1769 -1.457619E-03  7.537018E-04 -2.063002E-02
      1770 -1.481080E-03  7.172540E-04 -1.945453E-02
      1782 -1.040689E-03  7.723254E-04 -2.013191E-02
      1783 -1.218969E-03  7.777481E-04 -1.991441E-02
      1784 -8.888453E-04  7.729599E-04 -1.931642E-02
      1785 -1.163443E-03  7.816995E-04 -2.046370E-02
      1786 -8.386516E-04  8.030072E-04 -2.033291E-02
      1787 -7.362396E-04  8.032143E-04 -1.978394E-02
      1788 -1.011112E-03  7.789120E-04 -1.944548E-02
      1789 -1.305722E-03  7.771040E-04 -2.033461E-02
      1790 -1.363624E-03  7.520879E-04 -1.930721E-02
      1791 -6.863274E-04  8.077463E-04 -2.047208E-02
      1792 -6.366934E-04  7.988419E-04 -1.940359E-02
      1804 -2.646327E-03  6.865749E-04 -1.954237E-02
      1805 -4.496700E-03  6.117507E-04 -1.954770E-02
      1836  7.226041E-04  8.446996E-04 -1.950715E-02
      1850  8.728640E-04  7.456418E-04 -1.920889E-02
      1851  8.714368E-04  8.022113E-04 -1.892830E-02
      1852  8.314344E-04  8.206835E-04 -1.962772E-02
      1853  9.016083E-04  7.157397E-04 -1.909221E-02
      1879  1.721510E-04  7.835629E-04 -2.197516E-02
      1880  1.790147E-04  7.755946E-04 -2.231925E-02
      1882  1.536310E-04  8.086108E-04 -2.231021E-02
      1883  1.592241E-04  7.946497E-04 -2.182736E-02
      1888  1.781752E-04  8.415787E-04 -2.063969E-02
      1890  2.027061E-04  7.251128E-04 -2.121510E-02
      1892  1.527342E-04  8.067895E-04 -2.298002E-02
      1893  1.668968E-04  7.900082E-04 -2.278479E-02
      1894  1.463755E-04  8.236033E-04 -2.240425E-02
      1895  1.621821E-04  7.912724E-04 -2.216775E-02
      1896  1.528590E-04  8.405595E-04 -2.196895E-02
      1897  1.608086E-04  7.948179E-04 -2.122361E-02
      1898  1.900677E-04  8.295759E-04 -2.030566E-02
      1900  2.125248E-04  8.385153E-04 -1.966821E-02
      1901  2.464950E-04  8.321796E-04 -1.866219E-02
      1902  2.054525E-04  7.408406E-04 -2.178467E-02
      1904  1.591268E-04  8.002288E-04 -2.313966E-02
      1905  1.865866E-04  7.705283E-04 -2.254358E-02
      1906  1.618850E-04  8.491330E-04 -2.122304E-02
      1911  1.676999E-04  7.824467E-04 -2.154184E-02
      1912  1.448536E-04  8.171584E-04 -2.303297E-02
      1914  2.161383E-04  7.145978E-04 -2.068983E-02
      1915  2.186020E-04  7.224216E-04 -2.105659E-02
      1920  8.806182E-04  8.391680E-04 -2.161860E-02
      1921  1.106255E-03  8.156129E-04 -2.146629E-02
      1922  7.372221E-04  8.273361E-04 -2.076190E-02
      1923  1.024806E-03  8.287214E-04 -2.202021E-02
      1924  6.860381E-04  8.158207E-04 -2.190967E-02
      1925  5.787843E-04  8.056239E-04 -2.131700E-02
      1926  8.772232E-04  8.171763E-04 -2.093725E-02
      1927  1.197048E-03  8.247839E-04 -2.191683E-02
      1928  1.253263E-03  8.250440E-04 -2.076327E-02
      1929  5.063175E-04  8.218769E-04 -2.203923E-02
      1930  4.686644E-04  8.173788E-04 -2.088199E-02
      1942  9.068764E-04  7.976042E-04 -2.156088E-02
      1943  7.095412E-04  7.556684E-04 -2.134009E-02
      1944  7.585434E-04  7.882873E-04 -2.193127E-02
      1945  1.104456E-03  7.760772E-04 -2.066726E-02
      1946  1.116565E-03  7.896416E-04 -2.178954E-02
      1947  1.245467E-03  7.787456E-04 -2.118459E-02
      1948  9.612916E-04  7.614246E-04 -2.081816E-02
      1949  5.996485E-04  7.674796E-04 -2.179714E-02
      1950  5.806352E-04  7.501111E-04 -2.066899E-02
      1951  1.281999E-03  8.052554E-04 -2.194378E-02
      1952  1.369489E-03  7.813528E-04 -2.076239E-02
      1964  2.655577E-03  8.427750E-04 -2.092019E-02
      1965  4.701585E-03  8.902969E-04 -2.092136E-02
      1983  1.687399E-03  8.043946E-04 -2.141564E-02
      1984  1.597830E-03  8.417899E-04 -2.160143E-02
      1985  1.685299E-03  8.462357E-04 -2.423946E-02
      1986  1.726439E-03  8.434709E-04 -2.351085E-02
      1987  1.933479E-03  8.470114E-04 -2.355445E-02
      1988  1.732253E-03  8.486190E-04 -2.419568E-02
      1989  2.292833E-03  8.102070E-04 -2.025115E-02
      1990  2.171325E-03  8.392525E-04 -2.045213E-02
      1991  2.268823E-03  8.456792E-04 -2.257905E-02
      1992  2.285378E-03  8.497092E-04 -2.265465E-02
      1993  1.173233E-03  8.371868E-04 -2.261233E-02
      1994  1.210218E-03  8.077949E-04 -2.256742E-02
      2682  4.801533E-03  8.485628E-04 -2.093511E-02
      2683  2.567806E-03  8.409134E-04 -2.094617E-02
      2684  4.200553E-03  8.490046E-04 -2.103645E-02
      2685  4.884429E-03  8.969639E-04 -2.150092E-02
      2686  2.456251E-03  8.380030E-04 -2.137525E-02
      2687  5.036451E-03  8.509101E-04 -2.023383E-02
      2688  4.881436E-03  8.721040E-04 -2.056905E-02
      2689  3.974216E-03  8.713933E-04 -2.109309E-02
      2690  4.060774E-03  8.802959E-04 -2.207252E-02
      2691  2.455122E-03  8.472266E-04 -2.210514E-02
      2692  2.537012E-03  8.332947E-04 -2.033292E-02
      2693  4.562778E-03  8.881065E-04 -2.252573E-02
      2694  4.940256E-03  9.006924E-04 -2.224406E-02
      2695  3.138989E-03  8.495514E-04 -2.089396E-02
      2696  3.255812E-03  8.585304E-04 -2.175089E-02
      2697  3.127191E-03  8.624551E-04 -2.248503E-02
      2698  3.824490E-03  8.502042E-04 -2.033978E-02
      2699  4.577660E-03  8.583229E-04 -2.178815E-02
      2700  2.524689E-03  8.483727E-04 -2.178545E-02
      2704  5.678155E-03  9.449754E-04 -1.930983E-02
      2718  5.719410E-03  8.986764E-04 -2.038855E-02
      2719  5.723961E-03  9.196258E-04 -2.057950E-02
      2727  5.688722E-03  9.473312E-04 -1.915557E-02
      2728  5.616161E-03  8.471659E-04 -1.859852E-02
      2729  5.650801E-03  8.407437E-04 -1.926778E-02
      2730  5.690289E-03  9.405438E-04 -1.987436E-02
      2731  5.610649E-03  9.063053E-04 -1.842380E-02
      2734  5.680816E-03  8.677674E-04 -2.000444E-02
      2735  5.662617E-03  9.326030E-04 -1.868471E-02
      2736  5.732283E-03  9.145752E-04 -2.126042E-02
      2737  5.654003E-03  8.444962E-04 -1.971428E-02
      2738  5.640054E-03  8.338396E-04 -1.893198E-02
      2745  5.708308E-03  9.273583E-04 -2.009089E-02
      2750  5.689998E-03  9.473005E-04 -1.962706E-02
      2751  4.712568E-03  8.986995E-04 -2.166383E-02
      2752  2.650630E-03  8.494186E-04 -2.173978E-02
      2753  5.537688E-03  9.243550E-04 -2.184183E-02
      2754  4.625397E-03  9.240272E-04 -2.062916E-02
      2755  2.534707E-03  8.246250E-04 -2.030242E-02
      2756  4.938555E-03  9.231019E-04 -2.012312E-02
      2757  2.647544E-03  8.541650E-04 -2.229606E-02
      2758  2.599884E-03  8.437762E-04 -2.124342E-02
      2759  3.707885E-03  8.925772E-04 -2.159499E-02
      2760  3.518542E-03  8.727262E-04 -2.060079E-02
      2761  4.003527E-03  8.832196E-04 -2.012942E-02
      2762  3.331657E-03  8.538249E-04 -2.011451E-02
      2763  2.538744E-03  8.239281E-04 -2.011949E-02
      2764  4.410134E-03  9.116295E-04 -2.239746E-02
      2812  5.575445E-03  9.545344E-04 -1.849369E-02
      2815  5.587389E-03  8.465677E-04 -2.038158E-02
      2816  5.521457E-03  9.217984E-04 -2.303266E-02
      2817  5.433758E-03  9.331189E-04 -2.331542E-02
      2818  5.096851E-03  9.376484E-04 -2.317976E-02
      2819  4.998811E-03  8.991071E-04 -2.312509E-02
      2820  5.161571E-03  9.607006E-04 -2.101090E-02
      2821  4.698764E-03  8.590345E-04 -2.191703E-02
      2822  4.706494E-03  8.871364E-04 -2.282530E-02
      2823  5.348298E-03  8.445440E-04 -2.077098E-02
      2824  4.777224E-03  9.161631E-04 -2.394516E-02
      2825  4.827500E-03  8.430647E-04 -2.099558E-02
      2826  5.462480E-03  9.401090E-04 -2.310835E-02
      2827  5.708485E-03  9.373281E-04 -2.251443E-02
      2828  4.448261E-03  8.329328E-04 -2.021976E-02
      2829  4.763614E-03  9.264814E-04 -2.391001E-02
      2830  5.524732E-03  9.587585E-04 -1.989451E-02
      2831  5.317732E-03  8.386944E-04 -2.009203E-02
      2832  5.004319E-03  9.094519E-04 -2.351288E-02
      2833  4.648858E-03  9.277233E-04 -2.004625E-02
      3046 -2.784162E-03  6.292001E-04 -1.733260E-02
      3047  2.603014E-03  8.154815E-04 -1.836705E-02
      3050 -1.644906E-03  7.555218E-04 -1.995473E-02
      3051 -1.852414E-03  7.273558E-04 -2.028546E-02
      3052 -1.776947E-03  7.992728E-04 -2.253110E-02
      3053 -1.866223E-03  7.866070E-04 -2.207985E-02
      3054 -1.973510E-03  7.726544E-04 -2.181143E-02
      3055 -1.847922E-03  7.981415E-04 -2.260065E-02
      3056 -2.171783E-03  7.056897E-04 -1.888133E-02
      3057 -2.401164E-03  6.819999E-04 -1.925548E-02
      3058 -2.370076E-03  7.455863E-04 -2.130535E-02
      3059 -2.281733E-03  7.388655E-04 -2.093887E-02
      3060 -1.413635E-03  7.727313E-04 -2.129127E-02
      3061 -1.270145E-03  7.890620E-04 -2.090119E-02
      3084 -4.318591E-03  5.926657E-04 -1.945781E-02
      3085 -2.511076E-03  6.850799E-04 -1.893652E-02
      3086 -4.609307E-03  5.715311E-04 -1.882044E-02
      3087 -2.523467E-03  7.213482E-04 -2.071669E-02
      3088 -3.901640E-03  6.549472E-04 -2.071059E-02
      3089 -3.201458E-03  6.614024E-04 -1.977300E-02
      3090 -3.586442E-03  6.245770E-04 -1.888552E-02
      3091 -2.360660E-03  7.087734E-04 -1.978511E-02
      3092 -4.912981E-03  6.134065E-04 -2.032875E-02
      3093 -2.640005E-03  7.050836E-04 -2.029734E-02
      3094 -4.187147E-03  6.420368E-04 -2.032962E-02
      3095 -4.719604E-03  6.223056E-04 -2.010421E-02
      3096 -2.521459E-03  7.048365E-04 -1.999461E-02
      3097 -4.909279E-03  6.160181E-04 -1.898241E-02
      3098 -4.734219E-03  6.131955E-04 -1.926169E-02
      3099 -3.911509E-03  6.460549E-04 -1.973124E-02
      3100 -3.953498E-03  6.653193E-04 -2.062689E-02
      3101 -2.619204E-03  6.766776E-04 -1.906044E-02
      3102 -2.524243E-03  7.204504E-04 -2.066643E-02
      3103 -4.460059E-03  6.623957E-04 -2.106334E-02
      3104 -4.780032E-03  6.381245E-04 -2.078611E-02
      3105 -3.152419E-03  6.714094E-04 -1.956655E-02
      3106 -3.241456E-03  6.870690E-04 -2.035633E-02
      3107 -3.146187E-03  7.087535E-04 -2.101947E-02
      3108 -3.798227E-03  6.399762E-04 -1.907645E-02
      3109 -4.606607E-03  6.623979E-04 -2.034695E-02
      3110 -2.658122E-03  7.129057E-04 -2.041144E-02
      3111 -4.081379E-03  6.762734E-04 -2.044838E-02
      3112 -4.730200E-03  6.439856E-04 -1.964299E-02
      3113 -2.697001E-03  6.901097E-04 -1.965517E-02
      3114 -4.187560E-03  6.573152E-04 -1.973721E-02
      3137 -5.450110E-03  6.140911E-04 -1.910498E-02
      3138 -5.323363E-03  6.319676E-04 -2.148617E-02
      3139 -5.204921E-03  6.329904E-04 -2.168597E-02
      3140 -4.906992E-03  6.324951E-04 -2.149232E-02
      3141 -4.914093E-03  6.619661E-04 -2.158312E-02
      3142 -4.814797E-03  5.623203E-04 -1.961100E-02
      3143 -4.661131E-03  6.655718E-04 -2.053990E-02
      3144 -4.644786E-03  6.688037E-04 -2.134771E-02
      3145 -4.899819E-03  6.654629E-04 -2.192192E-02
      3146 -4.635689E-03  6.789684E-04 -2.232073E-02
      3147 -5.229743E-03  6.320115E-04 -1.947338E-02
      3148 -5.414171E-03  6.038697E-04 -2.098631E-02
      3149 -4.747953E-03  6.511854E-04 -1.972326E-02
      3150 -4.402578E-03  6.427952E-04 -1.901704E-02
      3151 -5.151505E-03  5.238986E-04 -1.863248E-02
      3152 -5.289670E-03  6.125081E-04 -1.878891E-02
      3153 -4.502492E-03  6.720836E-04 -2.221212E-02
      3154 -5.137439E-03  6.280384E-04 -2.156376E-02
      3155 -4.965417E-03  6.273086E-04 -1.898340E-02
      3156 -4.353511E-03  5.661913E-04 -1.874182E-02
      3166 -5.447287E-03  5.761517E-04 -1.879269E-02
      3168 -5.385104E-03  5.283538E-04 -1.845462E-02
      3174 -5.416742E-03  5.485554E-04 -1.880499E-02
      3185 -5.397341E-03  5.568578E-04 -1.759232E-02
      3187 -5.459655E-03  5.778486E-04 -1.782721E-02
      3188 -5.388673E-03  5.272545E-04 -1.807769E-02
      3199 -5.366593E-03  5.076910E-04 -1.771251E-02
      3203 -5.451926E-03  5.729554E-04 -1.933290E-02
      3205 -5.367794E-03  5.155327E-04 -1.817040E-02
      3208 -5.416360E-03  5.502394E-04 -1.840987E-02
      3210 -5.439406E-03  5.761541E-04 -1.815550E-02
      3214 -5.468054E-03  5.891004E-04 -2.005642E-02
      3218 -5.363132E-03  5.089466E-04 -1.747358E-02
      3219 -5.379668E-03  5.363587E-04 -1.770305E-02
      3223 -5.469389E-03  5.901455E-04 -1.845017E-02
      3226 -5.415288E-03  5.594587E-04 -1.813957E-02
      3230 -5.432379E-03  5.645536E-04 -1.931443E-02
      3263 -5.206293E-03  4.815149E-04 -1.733167E-02
      3268  1.675070E-03  8.108656E-04 -1.900952E-02
      3269  4.814578E-03  8.499489E-04 -1.903017E-02
      3270  3.236364E-03  8.331682E-04 -1.901927E-02
      3271  5.131559E-03  9.164316E-04 -1.923722E-02
      3272  1.395587E-03  7.735971E-04 -1.925252E-02
      3273  5.185290E-03  9.036861E-04 -1.983095E-02
      3274  4.561620E-03  8.918748E-04 -1.955270E-02
      3275  3.236187E-03  8.353700E-04 -1.864488E-02
      3276  4.504479E-03  8.768727E-04 -1.886794E-02
      3277  3.258375E-03  8.461502E-04 -1.983534E-02
      3278  3.887588E-03  8.654758E-04 -1.912171E-02
      3279  2.599351E-03  8.186957E-04 -1.924836E-02
      3280  5.058514E-03  8.796406E-04 -1.863559E-02
      3281  1.420756E-03  7.818950E-04 -1.866615E-02
      3282  1.972245E-03  7.938618E-04 -1.891752E-02
      3283  1.927893E-03  8.005820E-04 -1.961253E-02
      3284  2.456917E-03  8.131779E-04 -1.862887E-02
      3285  1.343260E-03  7.934229E-04 -1.981759E-02
      3286  1.752698E-03  8.115607E-04 -1.995012E-02
      3287  1.915867E-03  7.998345E-04 -1.855890E-02
      3288  2.406363E-03  8.256911E-04 -1.987301E-02
      3289  4.663702E-03  8.805611E-04 -1.994017E-02
      3290  4.085678E-03  8.691230E-04 -1.983781E-02
      3291  1.176934E-03  7.970076E-04 -1.995827E-02
      3348 -3.934766E-03  6.015783E-04 -1.803913E-02
      3405  4.707184E-03  9.039823E-04 -1.923105E-02
      3415  1.928444E-03  7.864869E-04 -1.927656E-02
      3423 -2.489046E-03  6.583075E-04 -1.803310E-02
      3452 -4.409680E-03  5.818650E-04 -1.844512E-02
      3509  3.516386E-03  8.558607E-04 -1.917346E-02
      3546  2.022995E-03  7.810479E-04 -1.912231E-02
      3585 -2.881726E-03  6.435863E-04 -1.812998E-02
      3586  2.759574E-03  8.291231E-04 -1.926698E-02
      3605 -3.003562E-03  7.198289E-04 -2.139236E-02
      3613  3.041246E-03  8.675385E-04 -2.291562E-02
      3615 -4.428609E-03  6.531339E-04 -2.106953E-02
      3632  3.093026E-03  8.322163E-04 -1.897527E-02
      3639 -4.575048E-03  5.992784E-04 -1.885059E-02
      3651 -4.528756E-03  5.539195E-04 -1.735022E-02
      3663 -2.122423E-03  6.633301E-04 -1.808511E-02
      3679 -2.009336E-03  6.563251E-04 -1.727576E-02
      3685  4.615101E-03  9.026949E-04 -2.252706E-02
      3686  8.580337E-04  8.031315E-04 -2.129465E-02