
                        S T E P       1


                                INCREMENT     1


 displacements (vx,vy,vz) for set LOADED and time  0.1000000E+01

       245  1.137343E-02  1.839650E-04 -6.169558E-02
       246  1.142633E-02  1.983640E-04 -6.135576E-02
       272 -1.300229E-02 -1.614741E-04 -6.169914E-02
       274 -1.295052E-02 -1.728263E-04 -6.136131E-02
       279 -1.188914E-02 -1.417412E-04 -6.169129E-02
       280  1.026008E-02  1.645662E-04 -6.168770E-02
       282  1.031405E-02  1.854520E-04 -6.134779E-02
       283 -1.183707E-02 -1.600731E-04 -6.135371E-02
       926  1.142000E-02  1.993481E-04 -6.138921E-02
       927  1.141735E-02  1.962378E-04 -6.143559E-02
       928  1.140782E-02  1.934934E-04 -6.148072E-02
       929  1.139716E-02  1.882477E-04 -6.152711E-02
       930  1.139338E-02  1.865318E-04 -6.158042E-02
       931  1.138330E-02  1.824796E-04 -6.163221E-02
      1219 -1.296061E-02 -1.746161E-04 -6.139432E-02
      1220 -1.297227E-02 -1.723279E-04 -6.144082E-02
      1221 -1.297769E-02 -1.697068E-04 -6.148824E-02
      1222 -1.298732E-02 -1.647283E-04 -6.153695E-02
      1223 -1.299410E-02 -1.638951E-04 -6.158476E-02
      1224 -1.300158E-02 -1.602016E-04 -6.163756E-02
      1268  9.413698E-03  1.753007E-04 -6.484598E-02
      1269  7.701411E-03  1.620225E-04 -6.760656E-02
      1270  5.283925E-03  1.329342E-04 -6.975545E-02
      1271  2.359679E-03  8.684153E-05 -7.111129E-02
      1272 -8.179104E-04  3.420860E-05 -7.157205E-02
      1273 -3.997153E-03 -2.126482E-05 -7.110667E-02
      1274 -6.917621E-03 -7.374416E-05 -6.975395E-02
      1275 -9.333201E-03 -1.135170E-04 -6.760794E-02
      1276 -1.104425E-02 -1.375146E-04 -6.484953E-02
      1277  9.230207E-04  2.342950E-05 -6.258391E-02
      1278 -1.437237E-03  1.218785E-05 -6.313816E-02
      1279 -3.336834E-03 -8.574457E-06 -6.157282E-02
      1283  1.031244E-02  1.832524E-04 -6.138575E-02
      1284  1.030723E-02  1.798970E-04 -6.143164E-02
      1285  1.029686E-02  1.771042E-04 -6.147639E-02
      1286  1.028894E-02  1.730870E-04 -6.152271E-02
      1287  1.028314E-02  1.698470E-04 -6.157685E-02
      1288  1.027540E-02  1.662828E-04 -6.162875E-02
      1289  9.468530E-03  1.653160E-04 -6.450788E-02
      1290  7.756490E-03  1.393713E-04 -6.727083E-02
      1291  5.338753E-03  1.086004E-04 -6.941744E-02
      1292  2.416193E-03  7.408468E-05 -7.077200E-02
      1293 -7.643097E-04  3.794183E-05 -7.123433E-02
      1294 -3.940837E-03 -3.754130E-06 -7.077118E-02
      1295 -6.863172E-03 -4.483142E-05 -6.941689E-02
      1296 -9.281014E-03 -8.833378E-05 -6.727045E-02
      1297 -1.099467E-02 -1.271707E-04 -6.450973E-02
      1305  9.787006E-04  5.614431E-05 -6.224556E-02
      1306 -1.380911E-03  5.136328E-07 -6.279856E-02
      1307 -3.283303E-03 -4.409491E-05 -6.123078E-02
      1311 -1.185155E-02 -1.576179E-04 -6.139080E-02
      1312 -1.186111E-02 -1.564242E-04 -6.143643E-02
      1313 -1.186960E-02 -1.526439E-04 -6.148494E-02
      1314 -1.187634E-02 -1.494191E-04 -6.153194E-02
      1315 -1.188524E-02 -1.482914E-04 -6.158161E-02
      1316 -1.189300E-02 -1.435681E-04 -6.163359E-02
      2582 -4.140619E-03 -2.652276E-05 -6.417289E-02
      2583  3.095637E-04  3.342123E-05 -6.492285E-02
      2586  2.692573E-03  6.109902E-05 -6.448414E-02
      2587 -9.360188E-03 -1.055244E-04 -6.282202E-02
      2592  7.805755E-03  1.339453E-04 -6.288300E-02
      2598 -2.135686E-03  7.104931E-06 -6.855491E-02
      2600  1.853788E-03  6.317425E-05 -6.690282E-02
      2603 -6.266223E-03 -5.856868E-05 -6.657410E-02
      2606  4.721193E-03  1.060530E-04 -6.668563E-02
      2612  5.181406E-03  9.640941E-05 -6.335089E-02
      2621 -6.962905E-03 -6.876392E-05 -6.366259E-02
      2623 -3.832630E-03 -2.035048E-05 -6.668100E-02
      2625  3.041901E-03  5.913540E-05 -6.227207E-02
      2630 -5.334933E-03 -4.296171E-05 -6.237359E-02
      2631 -1.918955E-03  5.188560E-06 -6.576540E-02
      2633  5.294723E-04  4.997019E-05 -6.924353E-02
      2638 -2.842103E-04  3.169055E-05 -6.714389E-02
      2639 -8.418310E-03 -9.388283E-05 -6.536899E-02
      2641  7.000928E-03  1.350971E-04 -6.514510E-02
      2642 -4.667298E-03 -3.351007E-05 -6.867504E-02
      2646  3.037898E-03  8.922698E-05 -6.884310E-02
      2663 -4.085543E-03 -3.796257E-05 -6.383337E-02
      2664  3.665163E-04  4.003041E-05 -6.458538E-02
      2667  2.747306E-03  7.846099E-05 -6.414678E-02
      2668 -9.309477E-03 -1.195379E-04 -6.247917E-02
      2673  7.860459E-03  1.484305E-04 -6.254371E-02
      2679 -2.080354E-03  1.136259E-05 -6.821818E-02
      2681  1.907648E-03  6.547815E-05 -6.656529E-02
      2684 -6.211652E-03 -5.614841E-05 -6.623573E-02
      2687  4.775989E-03  1.051044E-04 -6.634840E-02
      2693  5.234056E-03  1.135960E-04 -6.301252E-02
      2702 -6.906872E-03 -8.037083E-05 -6.332140E-02
      2704 -3.778250E-03 -2.107257E-05 -6.634382E-02
      2706  3.095530E-03  8.315074E-05 -6.193185E-02
      2711 -5.279894E-03 -6.415301E-05 -6.203052E-02
      2712 -1.860835E-03  3.177802E-06 -6.542837E-02
      2714  5.841780E-04  4.952404E-05 -6.890413E-02
      2719 -2.295428E-04  3.518224E-05 -6.680651E-02
      2720 -8.365733E-03 -9.123800E-05 -6.503049E-02
      2722  7.056050E-03  1.351217E-04 -6.480736E-02
      2723 -4.612692E-03 -2.237901E-05 -6.833825E-02
      2727  3.092820E-03  8.217463E-05 -6.850516E-02
      2794 -2.376817E-03  1.676570E-05 -7.114563E-02
      2795  3.880366E-03  1.092623E-04 -7.048405E-02
      2796 -5.501516E-03 -4.565864E-05 -7.048019E-02
      2797 -1.126170E-02 -1.357128E-04 -6.406967E-02
      2798  9.599064E-03  1.716499E-04 -6.429207E-02
      2799  3.921720E-03  9.438357E-05 -7.022564E-02
      2800 -8.164812E-03 -6.748677E-05 -6.846039E-02
      2801  9.616354E-03  1.687207E-04 -6.418976E-02
      2802 -1.121009E-02 -1.373424E-04 -6.435339E-02
      2803  9.595255E-03  1.724795E-04 -6.434576E-02
      2804 -1.102723E-02 -1.277069E-04 -6.452747E-02
      2805  9.591619E-03  1.710075E-04 -6.433487E-02
      2806  8.221796E-03  1.594452E-04 -6.681433E-02
      2807  8.223964E-03  1.530517E-04 -6.677025E-02
      2808  6.277141E-03  1.315464E-04 -6.884837E-02
      2809  6.278589E-03  1.280811E-04 -6.880835E-02
      2810  3.892391E-03  9.951050E-05 -7.032101E-02
      2811  3.888143E-03  1.037404E-04 -7.036465E-02
      2812  1.221650E-03  6.416686E-05 -7.118941E-02
      2813  1.219046E-03  6.483346E-05 -7.123885E-02
      2814 -1.570187E-03  2.232442E-05 -7.137047E-02
      2815 -1.573142E-03  2.481415E-05 -7.132317E-02
      2816 -4.319025E-03 -1.818222E-05 -7.080195E-02
      2817 -4.305864E-03 -1.489805E-05 -7.075959E-02
      2818 -6.846352E-03 -5.564282E-05 -6.956236E-02
      2819 -6.540498E-03 -5.667492E-05 -6.980717E-02
      2820 -1.570577E-03  2.093110E-05 -7.142245E-02
      2821 -6.938153E-03 -5.368349E-05 -6.945601E-02
      2822 -9.000084E-03 -8.964103E-05 -6.772058E-02
      2823 -1.575632E-03  2.530960E-05 -7.127969E-02
      2824  3.887077E-03  9.672049E-05 -7.028353E-02
      2825  3.884719E-03  1.071190E-04 -7.041777E-02
      2826  6.270764E-03  1.243360E-04 -6.877945E-02
      2827  8.956333E-04  5.801230E-05 -7.115649E-02
      2828  9.596128E-03  1.701831E-04 -6.426349E-02
      2829  8.227998E-03  1.653466E-04 -6.684292E-02
      2830  8.544031E-03  1.677454E-04 -6.642800E-02
      2831 -1.119545E-02 -1.359837E-04 -6.431302E-02
      2832 -9.981407E-03 -1.169822E-04 -6.663596E-02
      2833 -1.007714E-02 -1.224011E-04 -6.656239E-02
      2834 -7.874466E-03 -8.389588E-05 -6.895011E-02
      2835 -1.007693E-02 -1.128939E-04 -6.642788E-02
      2836 -1.130179E-02 -1.357063E-04 -6.388979E-02
      2837  1.184831E-03  6.333325E-05 -7.115235E-02
      2838  6.269460E-03  1.391277E-04 -6.889757E-02
      2839  8.238044E-03  1.509902E-04 -6.671834E-02
      2840 -4.226505E-03 -2.070651E-05 -7.088379E-02
      2841  6.431398E-03  1.436442E-04 -6.881505E-02
      2842  1.223701E-03  6.637504E-05 -7.129869E-02
      2843 -1.743210E-03  1.801352E-05 -7.146765E-02
      2844 -5.456983E-03 -2.592943E-05 -7.022939E-02
      2845  8.559989E-03  1.527130E-04 -6.621853E-02
      2846 -1.017462E-02 -1.099039E-04 -6.610280E-02
      2847 -9.304032E-03 -9.100138E-05 -6.733132E-02
      2848 -4.624791E-03 -1.646151E-05 -7.060820E-02
      2849 -4.674487E-03 -3.061121E-05 -7.077896E-02
      2850  6.497991E-03  1.241718E-04 -6.856321E-02
      2851  6.489186E-03  1.482416E-04 -6.880438E-02
      2852 -8.117392E-03 -9.339357E-05 -6.879901E-02
      2853 -6.405208E-03 -5.749178E-05 -6.992703E-02
      2854 -8.599215E-03 -8.728784E-05 -6.818604E-02
      2855  8.385554E-04  5.703155E-05 -7.113870E-02
      2856  7.933506E-04  6.077260E-05 -7.141756E-02
      2857 -8.453804E-03 -8.878698E-05 -6.838291E-02
      2858 -1.023179E-02 -1.135046E-04 -6.613561E-02
      2859 -1.129157E-02 -1.398687E-04 -6.417683E-02
      2860  9.701686E-03  1.746468E-04 -6.408881E-02
      2861  9.706018E-03  1.700793E-04 -6.393200E-02
      2862 -1.130766E-02 -1.362248E-04 -6.374682E-02
      2863 -1.027441E-02 -1.123845E-04 -6.602123E-02
      2864 -6.881472E-03 -4.972120E-05 -6.946241E-02
      2868  6.021414E-04  3.464959E-05 -6.267095E-02
      2869  6.164207E-04  3.597524E-05 -6.257536E-02
      2872 -3.635397E-04  2.483036E-05 -6.285580E-02
      2873 -2.576971E-04  2.116225E-05 -6.310597E-02
      2874  5.546912E-04  3.500368E-05 -6.265281E-02
      2875  6.541919E-04  3.845355E-05 -6.251494E-02
      2876 -1.898165E-03 -3.232803E-06 -6.270024E-02
      2877 -2.046240E-03 -5.276168E-06 -6.267071E-02
      2879 -2.256445E-03 -7.502903E-06 -6.260243E-02
      2880 -2.287208E-03 -6.742236E-06 -6.263912E-02
      2884  1.967910E-05  2.519070E-05 -6.297889E-02
      2893 -2.731258E-03 -1.038680E-05 -6.235235E-02
      2896 -1.983369E-03 -6.916977E-06 -6.262779E-02
      2899 -2.511532E-03 -1.848182E-05 -6.225945E-02
      2900 -2.557114E-03 -5.598929E-06 -6.254803E-02
      2903  1.418843E-03  5.348859E-05 -6.180727E-02
      2905  1.126357E-03  3.439165E-05 -6.236679E-02
      2906  1.172560E-03  3.647533E-05 -6.229451E-02
      2962 -2.522745E-03 -1.862632E-06 -6.688979E-02
      2965 -6.144899E-03 -6.037374E-05 -6.425622E-02
      2967 -1.654841E-03  1.406941E-05 -6.689080E-02
      2972 -8.756366E-04  2.323658E-05 -6.706212E-02
      2973  5.191539E-03  1.065589E-04 -6.297223E-02
      2980  5.059276E-03  1.035741E-04 -6.350499E-02
      2986 -7.062807E-03 -7.350079E-05 -6.296001E-02
      2987 -6.290355E-03 -6.323311E-05 -6.413201E-02
      2994 -5.146457E-03 -4.198191E-05 -6.561180E-02
      2996  5.077151E-03  1.015016E-04 -6.354779E-02
      3005  2.580668E-03  7.328297E-05 -6.635398E-02
      3015  3.240314E-03  8.155942E-05 -6.596082E-02
      3016 -8.103917E-03 -9.838549E-05 -6.154573E-02
      3019  2.743704E-03  7.494951E-05 -6.633563E-02
      3029  7.204699E-04  4.616780E-05 -6.699248E-02
      3032 -5.467901E-03 -5.669552E-05 -6.334788E-02
      3044  6.422061E-03  1.145180E-04 -6.256707E-02
      3050 -3.370741E-03 -1.468952E-05 -6.691414E-02
      3060  3.640726E-03  8.834069E-05 -6.642645E-02
      3064 -2.264057E-03  2.217720E-06 -6.646080E-02
      3082  5.253859E-04  4.568651E-05 -6.797466E-02
      3088 -5.028229E-03 -3.561923E-05 -6.679005E-02
      3157 -5.914379E-03 -5.505203E-05 -6.626436E-02
      3178 -8.194483E-03 -9.558629E-05 -6.243219E-02
      3205  5.127489E-04  4.742007E-05 -6.813002E-02
      3220 -9.022967E-03 -1.007126E-04 -6.141945E-02

 stresses (elem, integ.pnt.,sxx,syy,szz,sxy,sxz,syz) for set EALL and time  0.1000000E+01

         1   1  5.990844E-03  1.584452E-03 -7.315385E-05 -6.703459E-04 -3.927614E-03  1.010684E-04
         2   1  7.587077E-02  1.233055E-02 -4.980612E-03 -6.449551E-04 -6.627566E-02 -8.742868E-03
         3   1  5.523355E-02 -3.922201E-02 -1.053509E-02 -9.648872E-03 -4.342101E-02 -2.727736E-03
         4   1  1.336056E-01  3.702634E-02  2.080217E-02 -1.615877E-02 -2.208963E-02 -3.554839E-03
         5   1 -4.183180E-03  4.135647E-04 -3.479225E-03  7.978443E-05 -5.995174E-03  9.533174E-04
         6   1  9.744221E-02 -2.989811E-02 -3.259160E-02  5.005631E-03 -4.617264E-03 -6.753622E-03
         7   1  0.000000E+00  0.000000E+00  0.000000E+00  0.000000E+00  0.000000E+00  0.000000E+00
         8   1 -4.108820E-02  6.812342E-03  2.015252E-02  4.109536E-02  1.847186E-02  6.303965E-03
         9   1 -3.023752E-02 -5.687292E-03 -1.636912E-03 -9.150098E-03  5.816226E-04 -2.274237E-03
        10   1  1.004547E-01 -2.519360E-02 -2.957897E-02 -4.972136E-03 -4.861434E-03  7.239355E-03
        11   1  1.336523E-01  3.874569E-02  2.157514E-02  1.709258E-02 -2.160908E-02  4.237681E-03
        12   1  6.903996E-03  3.168681E-03  3.505399E-03 -5.601320E-04 -6.350953E-03  8.392498E-04
        13   1  1.130573E-02 -6.308511E-03 -6.150174E-03 -1.431443E-03 -9.711312E-03  1.974291E-03
        14   1  4.953587E-03  2.448174E-03  3.720181E-03  5.225138E-04 -1.054015E-02 -3.872511E-04
        15   1 -5.849758E-03 -8.426513E-04 -5.334210E-04  1.995684E-04 -9.621626E-03 -3.262639E-04
        16   1  4.117871E-02 -5.410785E-03  1.506770E-03 -3.786052E-03 -9.739515E-03 -2.387469E-03
        17   1 -3.868223E-03  4.576022E-03  7.321557E-03  1.023295E-04 -1.127759E-02 -3.263429E-04
        18   1 -7.035586E-03  2.363673E-03  6.872385E-03  3.544108E-03 -8.203808E-03  2.989385E-03
        19   1  1.449002E-03 -4.414733E-04 -1.690249E-03 -1.042178E-03 -2.743509E-03  6.906099E-04
        20   1  7.753182E-02  2.520601E-02  3.339220E-02  1.773374E-02 -1.949479E-03 -3.013901E-04
        21   1 -4.577706E-04  1.050488E-04  1.030869E-03 -1.048472E-03 -1.236031E-02 -1.940877E-03
        22   1 -3.075781E-02 -2.322553E-02 -4.937532E-02 -9.860942E-03 -1.146208E-02 -7.123389E-03
        23   1 -1.796561E-04  6.763920E-03  1.367388E-02  2.801851E-03 -1.403072E-02  2.384959E-03
        24   1  7.461462E-03  3.085588E-03  1.072622E-02 -7.720596E-04 -6.663846E-03 -2.812534E-03
        25   1 -1.819796E-02  5.025216E-03  1.699474E-02 -6.416110E-03 -2.572544E-02 -3.542577E-03
        26   1 -1.306871E-02  4.719101E-04  7.125019E-03  1.331969E-03 -2.783320E-02  3.848394E-03
        27   1  1.201586E-02  5.189590E-04  2.080466E-03 -3.407985E-03 -1.313957E-02  3.801967E-03
        28   1  1.272947E-03  5.683576E-03  1.444525E-02 -2.534603E-03 -2.624813E-04 -2.385132E-03
        29   1  6.148975E-02  2.777671E-03  3.668080E-03 -8.533027E-04 -8.002784E-03 -4.870780E-04
        30   1 -1.060464E-03  3.480332E-03  4.665597E-03 -9.354797E-04 -1.017726E-02 -1.906782E-03
        31   1 -1.614735E-02 -6.956866E-03  3.454643E-04 -6.149884E-03 -5.341408E-03 -4.169838E-03
        32   1  4.057763E-02  3.207486E-03 -2.171625E-03  1.557447E-02 -1.823428E-02 -2.758629E-03
        33   1  0.000000E+00  0.000000E+00  0.000000E+00  0.000000E+00  0.000000E+00  0.000000E+00
        34   1 -3.250280E-04  1.794068E-03  1.541195E-03  1.166538E-04 -1.103137E-02 -4.428840E-04
        35   1 -3.512988E-03  2.519198E-05 -1.808507E-03  8.046224E-06 -5.399593E-03  1.654397E-03
        36   1  0.000000E+00  0.000000E+00  0.000000E+00  0.000000E+00  0.000000E+00  0.000000E+00
        37   1  6.340811E-03 -1.929293E-03 -4.479893E-03 -1.470401E-03 -6.847512E-03 -2.822829E-04
        38   1  0.000000E+00  0.000000E+00  0.000000E+00  0.000000E+00  0.000000E+00  0.000000E+00
        39   1  6.387039E-03 -2.330764E-03 -2.649079E-03 -8.853345E-04 -6.990975E-03  5.612700E-04
        40   1  5.918963E-02  5.415147E-03  5.249216E-02  3.340302E-02  2.235784E-03  4.165719E-03
        41   1  3.896299E-03  4.330842E-03  1.865515E-02 -4.437320E-03 -2.300187E-02 -1.014312E-02
        42   1  0.000000E+00  0.000000E+00  0.000000E+00  0.000000E+00  0.000000E+00  0.000000E+00
        43   1 -1.772347E-02  9.358792E-03  7.000097E-03  4.625226E-03  1.440466E-03 -3.665948E-04
        44   1 -1.520028E-02  2.747677E-03  6.671992E-04 -7.801480E-04  1.189466E-05  1.376118E-03
        45   1  2.743436E-02  7.079041E-04  2.280412E-03  5.688045E-03 -3.282117E-03 -1.350912E-03
        46   1 -1.396359E-03 -6.438135E-04  1.163165E-03 -9.016524E-04 -1.192395E-02 -1.281361E-03
        47   1  1.889736E-02  1.053814E-02  1.047828E-02 -1.328736E-02  2.624373E-03 -3.615331E-04
        48   1 -5.160070E-03 -1.081675E-03 -3.130213E-03  8.476472E-04 -7.222105E-03  1.769960E-03
        49   1  0.000000E+00  0.000000E+00  0.000000E+00  0.000000E+00  0.000000E+00  0.000000E+00
        50   1  2.052100E-01  4.662344E-02  2.758638E-02 -3.116249E-02 -3.970818E-02  2.184118E-02
        51   1  0.000000E+00  0.000000E+00  0.000000E+00  0.000000E+00  0.000000E+00  0.000000E+00
        52   1 -1.650261E-03 -7.056676E-03 -9.694199E-03 -1.699798E-03 -2.325738E-02  6.401034E-03
        53   1  9.293509E-03  7.729709E-05 -5.474301E-05  7.084938E-04 -6.566350E-03 -2.305614E-04
        54   1 -4.644920E-03  7.023045E-04  3.192157E-04 -6.397525E-04 -9.463939E-03 -1.401777E-03
        55   1 -2.098029E-03 -4.541061E-04  1.995942E-03  4.670867E-04 -4.451661E-03 -1.461061E-03
        56   1 -8.024433E-03 -1.386332E-03 -4.198745E-03  2.223476E-04 -7.210020E-03  1.599195E-03
        57   1 -1.744508E-03 -5.926134E-04 -1.834370E-03 -6.718926E-04 -1.311907E-02 -2.058629E-03
        58   1  0.000000E+00  0.000000E+00  0.000000E+00  0.000000E+00  0.000000E+00  0.000000E+00
        59   1  4.237811E-02 -6.135527E-04  1.044587E-02  7.216698E-03 -1.245582E-02 -5.764735E-03
        60   1  4.480943E-02 -4.964613E-02 -2.989417E-02 -9.648872E-03 -5.443375E-02  4.082436E-03
        61   1  8.248167E-02  1.894145E-02  7.296769E-03 -6.449551E-04 -5.475736E-02  3.489156E-03
        62   1  1.390719E-02 -2.139954E-03 -3.139264E-03  1.369086E-03 -6.017017E-03  4.925183E-05
        63   1 -6.768193E-03 -3.159095E-03 -4.598923E-03  2.070232E-03 -9.151483E-03  2.219236E-03
        64   1  1.904925E-02 -3.300135E-03 -4.222831E-04 -2.798870E-03 -7.460027E-03  9.940273E-04
        65   1 -3.208628E-03 -1.029745E-03 -1.224896E-03 -3.690952E-04 -6.177707E-03 -1.132093E-03
        66   1  4.646388E-03  2.694350E-03  4.412518E-03 -4.301351E-04 -9.222071E-03  1.270755E-03
        67   1  7.581257E-03  2.630736E-03  9.084787E-04 -5.113749E-08 -5.624344E-03 -3.312692E-04
        68   1  1.185278E-03 -6.971856E-04 -1.403534E-03  3.156263E-04 -7.486063E-03  2.530609E-03
        69   1  0.000000E+00  0.000000E+00  0.000000E+00  0.000000E+00  0.000000E+00  0.000000E+00
        70   1  7.020006E-03  1.450640E-03 -3.461437E-04  6.685195E-04 -6.832883E-03 -5.365721E-04
        71   1 -5.947619E-03 -3.086916E-03 -1.943377E-03 -3.584065E-04 -5.618972E-03  1.380533E-03
        72   1  5.530217E-02  1.055228E-02  1.582006E-03 -1.800408E-02 -9.920470E-03 -7.614369E-03
        73   1 -1.965206E-02 -1.841240E-04  2.563573E-03  5.978069E-03  1.527054E-03 -1.805678E-03
        74   1  3.352624E-03  1.804287E-03  3.368123E-03 -6.894621E-04 -1.391950E-02 -1.596811E-03
        75   1  2.052712E-01  4.393510E-02  2.635226E-02  3.103738E-02 -3.956446E-02 -2.196180E-02
        76   1  0.000000E+00  0.000000E+00  0.000000E+00  0.000000E+00  0.000000E+00  0.000000E+00
        77   1 -1.026444E-02 -3.240950E-04  5.884624E-05  3.244198E-03 -7.047891E-03  1.925560E-03
        78   1 -1.547183E-02  1.956195E-03  3.292062E-03  1.452904E-03 -5.029135E-03  1.865352E-03
        79   1  1.612001E-02  4.037270E-04 -4.783974E-04  3.503146E-03 -2.910782E-03 -2.190895E-03
        80   1 -8.620928E-03 -1.564641E-03 -1.704483E-03  3.204486E-04 -7.535155E-03  2.768717E-03
        81   1  4.572331E-03  5.178035E-03  4.585286E-03 -1.107820E-03 -1.005007E-02 -2.938829E-03
        82   1  0.000000E+00  0.000000E+00  0.000000E+00  0.000000E+00  0.000000E+00  0.000000E+00
        83   1  4.240591E-02 -8.884727E-03 -2.144463E-03  3.809737E-03 -7.046818E-03 -1.222559E-03
        84   1  2.105140E-03  5.173372E-04  1.004146E-03  3.832083E-05 -4.937025E-03  8.716042E-04
        85   1 -8.976515E-03  1.208914E-04  2.374601E-03  3.491895E-03 -5.754503E-03  2.443286E-03
        86   1  0.000000E+00  0.000000E+00  0.000000E+00  0.000000E+00  0.000000E+00  0.000000E+00
        87   1  0.000000E+00  0.000000E+00  0.000000E+00  0.000000E+00  0.000000E+00  0.000000E+00
        88   1  0.000000E+00  0.000000E+00  0.000000E+00  0.000000E+00  0.000000E+00  0.000000E+00
        89   1  1.249182E-01  3.847519E-02  3.572966E-02  1.244785E-02  4.903329E-03  9.807129E-03
        90   1 -2.143863E-02 -2.858917E-03 -6.165364E-05  6.767333E-03 -1.968226E-03 -1.367522E-04
        91   1  0.000000E+00  0.000000E+00  0.000000E+00  0.000000E+00  0.000000E+00  0.000000E+00
        92   1 -5.510050E-02 -7.184506E-04  1.896181E-03  2.611341E-03  2.507763E-03  2.056377E-04
        93   1 -4.010975E-02 -5.536026E-03 -3.127496E-03 -1.963810E-02 -6.283153E-03 -1.826479E-03
        94   1  2.259603E-03 -2.507385E-04 -1.283768E-03  5.818256E-04 -8.808374E-03  2.502210E-03
        95   1  4.733150E-03  2.929277E-05  2.240682E-03 -1.319877E-03 -1.021518E-02  1.258250E-03
        96   1 -6.701564E-03 -4.769557E-03 -3.236620E-03  5.275212E-04 -4.788947E-03  8.744554E-04
        97   1  0.000000E+00  0.000000E+00  0.000000E+00  0.000000E+00  0.000000E+00  0.000000E+00
        98   1  1.013850E-02 -7.005781E-03 -6.084418E-03 -9.200123E-04 -7.491664E-03  1.391783E-03
        99   1  4.504659E-03 -2.247610E-03 -7.365818E-03  9.050612E-04 -7.474530E-03 -4.594750E-05
       100   1  0.000000E+00  0.000000E+00  0.000000E+00  0.000000E+00  0.000000E+00  0.000000E+00
       101   1  0.000000E+00  0.000000E+00  0.000000E+00  0.000000E+00  0.000000E+00  0.000000E+00
       102   1  0.000000E+00  0.000000E+00  0.000000E+00  0.000000E+00  0.000000E+00  0.000000E+00
       103   1  5.731581E-03 -7.146121E-04 -4.571664E-03  1.001550E-04 -1.510919E-02 -3.554099E-04
       104   1 -3.843088E-02  5.431318E-03  4.346915E-03  2.120352E-03  3.601791E-03  1.492516E-03
       105   1  9.724094E-02  2.034473E-02  8.435777E-03 -6.786017E-02 -5.653910E-03 -8.926608E-03
       106   1  0.000000E+00  0.000000E+00  0.000000E+00  0.000000E+00  0.000000E+00  0.000000E+00
       107   1  2.379950E-03 -2.913639E-04  4.091665E-03 -1.023210E-03 -4.533852E-03 -1.527037E-03
       108   1  1.923692E-03  1.046897E-03  8.716562E-04 -4.045231E-04 -1.467368E-02 -1.663866E-03
       109   1  7.434979E-02  1.506048E-02  2.063353E-02  1.092752E-02 -1.400197E-02 -4.279880E-03
       110   1  0.000000E+00  0.000000E+00  0.000000E+00  0.000000E+00  0.000000E+00  0.000000E+00
       111   1 -3.171368E-02  5.707638E-03  5.148621E-03  4.197219E-04 -2.701499E-03  1.525603E-03
       112   1 -2.448453E-03 -4.566382E-04 -1.610101E-03 -4.056815E-04 -4.385147E-03  2.195939E-03
       113   1  6.980260E-03  2.034261E-03  1.368653E-03  4.202850E-04 -5.469990E-03 -6.247900E-04
       114   1 -7.475621E-02  1.610571E-02 -4.148389E-03  6.011411E-02 -3.077587E-03  3.854891E-04
       115   1  8.045457E-04 -4.055094E-04 -6.700368E-04 -1.498047E-04 -6.897501E-03  2.241104E-03
       116   1 -3.363106E-02  1.804616E-03 -4.151079E-03  6.128791E-04 -5.407067E-03  1.143435E-03
       117   1 -1.479885E-01 -1.951400E-02 -3.324200E-02  4.182182E-03 -9.286167E-05 -1.171808E-02
       118   1  6.635093E-02  3.055377E-02  1.903061E-02 -2.189770E-02 -2.658608E-03  2.093031E-03
       119   1  2.114193E-02  5.343685E-03  2.744401E-03 -2.444846E-03 -2.571485E-02  6.548311E-03
       120   1  7.902710E-03 -1.281793E-03 -2.373421E-03  1.285201E-03 -9.099041E-03 -1.941719E-04
       121   1  0.000000E+00  0.000000E+00  0.000000E+00  0.000000E+00  0.000000E+00  0.000000E+00
       122   1 -1.268857E-02 -4.876105E-03 -1.291542E-03 -5.797701E-03 -1.149208E-02 -1.319248E-03
       123   1  0.000000E+00  0.000000E+00  0.000000E+00  0.000000E+00  0.000000E+00  0.000000E+00
       124   1  0.000000E+00  0.000000E+00  0.000000E+00  0.000000E+00  0.000000E+00  0.000000E+00
       125   1  2.020949E-01  1.395480E-02 -2.072262E-03 -2.883320E-02 -1.431768E-02 -4.764747E-03
       126   1  2.340686E-03  4.224879E-04 -2.712856E-03 -1.135622E-03 -3.659647E-03  2.900848E-03
       127   1  1.038947E-01  3.737167E-02  2.215512E-02 -5.489139E-02 -3.653389E-03  8.283515E-04
       128   1  8.383327E-02  3.060755E-02  4.090019E-02  4.874806E-03  9.013923E-04  4.434506E-03
       129   1  0.000000E+00  0.000000E+00  0.000000E+00  0.000000E+00  0.000000E+00  0.000000E+00
       130   1 -6.203992E-03 -2.967332E-03 -1.930458E-03 -4.869231E-04 -5.042339E-03  1.843285E-03
       131   1 -7.516477E-02  4.339772E-03 -1.666336E-02 -5.335665E-02 -1.670985E-03  4.029867E-03
       132   1 -2.267006E-02 -4.845195E-03 -4.510996E-03  3.735473E-03 -3.107766E-03 -2.450312E-04
       133   1  1.220117E-01  7.467038E-02  1.157001E-01 -2.467687E-02 -1.913935E-02  1.841898E-03
       134   1  3.979044E-03  1.167219E-03  5.986577E-04  7.084219E-05 -7.965332E-03  2.225788E-03
       135   1  3.624551E-02  2.676248E-02  5.716822E-02 -7.989949E-03 -1.156579E-02  1.655328E-02
       136   1  4.946012E-02  8.917044E-03  8.721586E-03  1.220169E-02 -1.130725E-02 -8.297871E-03
       137   1  9.500693E-02  4.002691E-02  4.808261E-02 -7.544643E-03  1.469806E-03 -3.261696E-03
       138   1 -4.400034E-03 -1.178080E-03  1.182708E-03 -3.603910E-04 -5.956370E-03 -1.179817E-03
       139   1 -2.822485E-02 -7.130418E-03 -2.256034E-03  5.427177E-03 -2.451345E-02  7.085853E-03
       140   1 -5.021592E-03 -3.101502E-03 -4.996531E-03  2.505896E-03 -5.033112E-03  6.394370E-03
       141   1 -1.183059E-01 -5.726370E-02 -6.045091E-02  1.766922E-02 -5.403017E-03 -1.756027E-03
       142   1  0.000000E+00  0.000000E+00  0.000000E+00  0.000000E+00  0.000000E+00  0.000000E+00
       143   1  5.168768E-02  2.160160E-02  2.162423E-03 -2.189697E-02 -1.520758E-02 -2.100202E-02
       144   1  1.992469E-01  1.130741E-02 -7.357706E-03  2.879320E-02 -1.255859E-02  5.372358E-03
       145   1  2.894379E-02  3.730299E-03  3.310972E-03 -3.611469E-03 -2.536154E-03  6.535281E-04
       146   1  4.762058E-02  7.360393E-03  6.665101E-03 -1.248114E-02 -6.490827E-03  5.352756E-03
       147   1 -4.946872E-02 -4.303551E-02 -1.134250E-02 -2.050676E-02 -3.045179E-03  1.550034E-03
       148   1  2.766944E-02  1.007409E-03  2.730308E-03  5.837941E-03 -3.238558E-03 -1.096307E-03
       149   1  0.000000E+00  0.000000E+00  0.000000E+00  0.000000E+00  0.000000E+00  0.000000E+00
       150   1 -1.616925E-02 -4.118123E-03 -2.489242E-03 -1.228584E-03 -1.080167E-02 -2.246844E-03
       151   1  0.000000E+00  0.000000E+00  0.000000E+00  0.000000E+00  0.000000E+00  0.000000E+00
       152   1  1.240657E-03  3.576097E-04  1.355209E-03 -9.592595E-04 -1.300430E-02 -1.481897E-03
       153   1  9.193102E-02  4.824224E-02  3.574119E-02 -4.025381E-02 -1.561169E-02  2.011372E-03
       154   1 -5.849515E-03 -2.279204E-03 -5.066690E-03  1.764334E-04 -5.037557E-03 -2.611501E-03
       155   1 -5.289714E-03  4.170278E-03  6.132524E-03 -7.204844E-04 -9.249437E-03 -1.544607E-03
       156   1 -1.429219E-03 -3.362652E-04  2.618725E-03  2.299882E-04 -2.062375E-03 -1.182719E-03
       157   1  0.000000E+00  0.000000E+00  0.000000E+00  0.000000E+00  0.000000E+00  0.000000E+00
       158   1  1.877127E-02  1.289552E-02  1.769963E-02 -4.013260E-03 -3.188566E-02  1.153184E-02
       159   1 -1.784336E-02  7.673590E-04 -9.858088E-05 -1.949060E-03 -2.774239E-03 -3.231369E-04
       160   1  0.000000E+00  0.000000E+00  0.000000E+00  0.000000E+00  0.000000E+00  0.000000E+00
       161   1  6.930504E-03  4.012547E-03  1.355521E-03 -2.079955E-04 -3.637130E-03  5.939000E-04
       162   1 -1.950742E-03  6.389727E-04  1.346220E-03 -1.791388E-03 -1.235743E-02 -2.383634E-03
       163   1 -3.471656E-03 -1.557365E-07  3.809114E-03 -2.769058E-03 -7.132803E-04 -3.515784E-03
       164   1 -2.123615E-04  3.679019E-03  7.048076E-03  7.388807E-04 -7.250016E-03  1.352696E-04
       165   1  6.599684E-03  4.363012E-03  4.853341E-03  1.072720E-04 -4.132575E-03 -7.583177E-04
       166   1  5.604865E-02  1.438593E-02  3.890639E-04 -2.207362E-02 -5.724737E-03 -1.095726E-02
       167   1 -1.454248E-01 -5.321091E-02 -3.400119E-02  1.990992E-03 -1.084487E-02 -1.443550E-02
       168   1  6.149182E-02  1.436678E-02  2.363722E-02  1.979176E-02  6.889576E-04  4.805779E-03
       169   1 -7.190991E-03 -3.005717E-03 -7.723354E-03 -1.974355E-05 -8.210616E-03 -1.679709E-03
       170   1  0.000000E+00  0.000000E+00  0.000000E+00  0.000000E+00  0.000000E+00  0.000000E+00
       171   1  0.000000E+00  0.000000E+00  0.000000E+00  0.000000E+00  0.000000E+00  0.000000E+00
       172   1  0.000000E+00  0.000000E+00  0.000000E+00  0.000000E+00  0.000000E+00  0.000000E+00
       173   1  6.195513E-03 -4.628054E-03  1.810639E-04  2.882454E-04 -1.387953E-02 -7.010738E-04
       174   1  1.271739E-01  3.658084E-02  3.221706E-02 -1.188793E-02  5.788304E-03 -9.868280E-03
       175   1  1.738882E-03 -2.712170E-03 -9.065682E-04 -5.155221E-04 -6.249354E-03 -2.866151E-03
       176   1  0.000000E+00  0.000000E+00  0.000000E+00  0.000000E+00  0.000000E+00  0.000000E+00
       177   1  1.353436E-01  1.194439E-02  2.870950E-02  8.349386E-03  2.049218E-03  4.793721E-03
       178   1 -2.795960E-02 -3.245333E-03 -2.114274E-03  7.695068E-03 -6.312500E-03  1.794408E-03
       179   1  7.375377E-02  6.161313E-02  5.288371E-02 -2.554887E-02 -7.931296E-03  7.164093E-03
       180   1  1.089718E-01  4.924702E-02  1.243121E-02 -5.278444E-02  1.715105E-03 -1.233597E-02
       181   1 -1.230945E-01 -7.987676E-03 -2.807028E-02 -1.773842E-02 -2.039941E-02  6.384962E-03
       182   1  4.623366E-02 -5.951022E-03  4.464114E-04  1.210523E-03 -3.420940E-03 -1.709460E-04
       183   1  9.474437E-03 -5.634091E-04  1.075991E-03 -2.898556E-03 -1.227694E-02  2.991372E-03
       184   1 -6.035017E-02 -2.358502E-03  1.952564E-03  1.586234E-03  3.269443E-03 -4.999875E-04
       185   1  1.891780E-02  2.001566E-03  4.092426E-03  5.429677E-04 -9.793718E-03 -5.201189E-04
       186   1  0.000000E+00  0.000000E+00  0.000000E+00  0.000000E+00  0.000000E+00  0.000000E+00